Title: ** sch_path: /home/adair/documents/cad/xschem_library_adair/schematics/tb_cm_ota_working_v2_extracted.sch
Date: Sun Sep 22 23:22:57  2024
Plotname: Operating Point
Flags: real
No. Variables: 2180
No. Points: 1
Variables:
	0	v(vdd)	voltage
	1	i(@c.x123.c0[i])	current
	2	i(@c.x123.c1[i])	current
	3	i(@c.x123.c2[i])	current
	4	i(@c.x123.c3[i])	current
	5	i(@c.x123.c4[i])	current
	6	i(@c.x123.c5[i])	current
	7	i(@c.x123.c6[i])	current
	8	i(@c.x123.c7[i])	current
	9	i(@c.x123.c8[i])	current
	10	i(@c.x123.c9[i])	current
	11	i(@c.x123.c10[i])	current
	12	i(@c.x123.c11[i])	current
	13	i(@c.x123.c12[i])	current
	14	i(@c.x123.c13[i])	current
	15	i(@c.x123.c14[i])	current
	16	i(@c.x123.c15[i])	current
	17	i(@c.x123.c16[i])	current
	18	i(@c.x123.c17[i])	current
	19	i(@c.x123.c18[i])	current
	20	i(@c.x123.c19[i])	current
	21	i(@c.x123.c20[i])	current
	22	i(@c.x123.c21[i])	current
	23	i(@c.x123.c22[i])	current
	24	i(@c.x123.c23[i])	current
	25	i(@c.x123.c24[i])	current
	26	i(@c.x123.c25[i])	current
	27	i(@c.x123.c26[i])	current
	28	i(@c.x123.c27[i])	current
	29	i(@c.x123.c28[i])	current
	30	i(@c.x123.c29[i])	current
	31	i(@c.x123.c30[i])	current
	32	i(@c.x123.c31[i])	current
	33	i(@c.x123.c32[i])	current
	34	i(@c.x123.c33[i])	current
	35	i(@c.x123.c34[i])	current
	36	i(@c.x123.c35[i])	current
	37	i(@c.x123.c36[i])	current
	38	i(@c.x123.c37[i])	current
	39	i(@c1[i])	current
	40	i(@c123[i])	current
	41	@i3[current]	capacitance
	42	@i123[current]	capacitance
	43	i(@m.x1.xm1.msky130_fd_pr__nfet_01v8[ib])	current dims=0
	44	i(@m.x1.xm1.msky130_fd_pr__nfet_01v8[id])	current
	45	i(@m.x1.xm1.msky130_fd_pr__nfet_01v8[ig])	current dims=0
	46	i(@m.x1.xm1.msky130_fd_pr__nfet_01v8[is])	current dims=0
	47	i(@m.x1.xm2.msky130_fd_pr__nfet_01v8[ib])	current dims=0
	48	i(@m.x1.xm2.msky130_fd_pr__nfet_01v8[id])	current
	49	i(@m.x1.xm2.msky130_fd_pr__nfet_01v8[ig])	current dims=0
	50	i(@m.x1.xm2.msky130_fd_pr__nfet_01v8[is])	current dims=0
	51	i(@m.x1.xm3.msky130_fd_pr__pfet_01v8[ib])	current dims=0
	52	i(@m.x1.xm3.msky130_fd_pr__pfet_01v8[id])	current
	53	i(@m.x1.xm3.msky130_fd_pr__pfet_01v8[ig])	current dims=0
	54	i(@m.x1.xm3.msky130_fd_pr__pfet_01v8[is])	current dims=0
	55	i(@m.x1.xm4.msky130_fd_pr__pfet_01v8[ib])	current dims=0
	56	i(@m.x1.xm4.msky130_fd_pr__pfet_01v8[id])	current
	57	i(@m.x1.xm4.msky130_fd_pr__pfet_01v8[ig])	current dims=0
	58	i(@m.x1.xm4.msky130_fd_pr__pfet_01v8[is])	current dims=0
	59	i(@m.x1.xm5.msky130_fd_pr__nfet_01v8[ib])	current dims=0
	60	i(@m.x1.xm5.msky130_fd_pr__nfet_01v8[id])	current
	61	i(@m.x1.xm5.msky130_fd_pr__nfet_01v8[ig])	current dims=0
	62	i(@m.x1.xm5.msky130_fd_pr__nfet_01v8[is])	current dims=0
	63	i(@m.x1.xm6.msky130_fd_pr__nfet_01v8[ib])	current dims=0
	64	i(@m.x1.xm6.msky130_fd_pr__nfet_01v8[id])	current
	65	i(@m.x1.xm6.msky130_fd_pr__nfet_01v8[ig])	current dims=0
	66	i(@m.x1.xm6.msky130_fd_pr__nfet_01v8[is])	current dims=0
	67	i(@m.x1.xm7.msky130_fd_pr__pfet_01v8[ib])	current dims=0
	68	i(@m.x1.xm7.msky130_fd_pr__pfet_01v8[id])	current
	69	i(@m.x1.xm7.msky130_fd_pr__pfet_01v8[ig])	current dims=0
	70	i(@m.x1.xm7.msky130_fd_pr__pfet_01v8[is])	current dims=0
	71	i(@m.x1.xm8.msky130_fd_pr__pfet_01v8[ib])	current dims=0
	72	i(@m.x1.xm8.msky130_fd_pr__pfet_01v8[id])	current
	73	i(@m.x1.xm8.msky130_fd_pr__pfet_01v8[ig])	current dims=0
	74	i(@m.x1.xm8.msky130_fd_pr__pfet_01v8[is])	current dims=0
	75	i(@m.x1.xm9.msky130_fd_pr__nfet_01v8[ib])	current dims=0
	76	i(@m.x1.xm9.msky130_fd_pr__nfet_01v8[id])	current
	77	i(@m.x1.xm9.msky130_fd_pr__nfet_01v8[ig])	current dims=0
	78	i(@m.x1.xm9.msky130_fd_pr__nfet_01v8[is])	current dims=0
	79	i(@m.x1.xm10.msky130_fd_pr__nfet_01v8[ib])	current dims=0
	80	i(@m.x1.xm10.msky130_fd_pr__nfet_01v8[id])	current
	81	i(@m.x1.xm10.msky130_fd_pr__nfet_01v8[ig])	current dims=0
	82	i(@m.x1.xm10.msky130_fd_pr__nfet_01v8[is])	current dims=0
	83	i(@m.x123.x0.msky130_fd_pr__nfet_01v8[ib])	current dims=0
	84	i(@m.x123.x0.msky130_fd_pr__nfet_01v8[id])	current
	85	i(@m.x123.x0.msky130_fd_pr__nfet_01v8[ig])	current dims=0
	86	i(@m.x123.x0.msky130_fd_pr__nfet_01v8[is])	current dims=0
	87	i(@m.x123.x1.msky130_fd_pr__nfet_01v8[ib])	current dims=0
	88	i(@m.x123.x1.msky130_fd_pr__nfet_01v8[id])	current
	89	i(@m.x123.x1.msky130_fd_pr__nfet_01v8[ig])	current dims=0
	90	i(@m.x123.x1.msky130_fd_pr__nfet_01v8[is])	current dims=0
	91	i(@m.x123.x2.msky130_fd_pr__nfet_01v8[ib])	current dims=0
	92	i(@m.x123.x2.msky130_fd_pr__nfet_01v8[id])	current
	93	i(@m.x123.x2.msky130_fd_pr__nfet_01v8[ig])	current dims=0
	94	i(@m.x123.x2.msky130_fd_pr__nfet_01v8[is])	current dims=0
	95	i(@m.x123.x3.msky130_fd_pr__nfet_01v8[ib])	current dims=0
	96	i(@m.x123.x3.msky130_fd_pr__nfet_01v8[id])	current
	97	i(@m.x123.x3.msky130_fd_pr__nfet_01v8[ig])	current dims=0
	98	i(@m.x123.x3.msky130_fd_pr__nfet_01v8[is])	current dims=0
	99	i(@m.x123.x4.msky130_fd_pr__nfet_01v8[ib])	current dims=0
	100	i(@m.x123.x4.msky130_fd_pr__nfet_01v8[id])	current
	101	i(@m.x123.x4.msky130_fd_pr__nfet_01v8[ig])	current dims=0
	102	i(@m.x123.x4.msky130_fd_pr__nfet_01v8[is])	current dims=0
	103	i(@m.x123.x5.msky130_fd_pr__nfet_01v8[ib])	current dims=0
	104	i(@m.x123.x5.msky130_fd_pr__nfet_01v8[id])	current
	105	i(@m.x123.x5.msky130_fd_pr__nfet_01v8[ig])	current dims=0
	106	i(@m.x123.x5.msky130_fd_pr__nfet_01v8[is])	current dims=0
	107	i(@m.x123.x6.msky130_fd_pr__nfet_01v8[ib])	current dims=0
	108	i(@m.x123.x6.msky130_fd_pr__nfet_01v8[id])	current
	109	i(@m.x123.x6.msky130_fd_pr__nfet_01v8[ig])	current dims=0
	110	i(@m.x123.x6.msky130_fd_pr__nfet_01v8[is])	current dims=0
	111	i(@m.x123.x7.msky130_fd_pr__nfet_01v8[ib])	current dims=0
	112	i(@m.x123.x7.msky130_fd_pr__nfet_01v8[id])	current
	113	i(@m.x123.x7.msky130_fd_pr__nfet_01v8[ig])	current dims=0
	114	i(@m.x123.x7.msky130_fd_pr__nfet_01v8[is])	current dims=0
	115	i(@m.x123.x8.msky130_fd_pr__nfet_01v8[ib])	current dims=0
	116	i(@m.x123.x8.msky130_fd_pr__nfet_01v8[id])	current
	117	i(@m.x123.x8.msky130_fd_pr__nfet_01v8[ig])	current dims=0
	118	i(@m.x123.x8.msky130_fd_pr__nfet_01v8[is])	current dims=0
	119	i(@m.x123.x9.msky130_fd_pr__nfet_01v8[ib])	current dims=0
	120	i(@m.x123.x9.msky130_fd_pr__nfet_01v8[id])	current
	121	i(@m.x123.x9.msky130_fd_pr__nfet_01v8[ig])	current dims=0
	122	i(@m.x123.x9.msky130_fd_pr__nfet_01v8[is])	current dims=0
	123	i(@m.x123.x10.msky130_fd_pr__nfet_01v8[ib])	current dims=0
	124	i(@m.x123.x10.msky130_fd_pr__nfet_01v8[id])	current
	125	i(@m.x123.x10.msky130_fd_pr__nfet_01v8[ig])	current dims=0
	126	i(@m.x123.x10.msky130_fd_pr__nfet_01v8[is])	current dims=0
	127	i(@m.x123.x11.msky130_fd_pr__nfet_01v8[ib])	current dims=0
	128	i(@m.x123.x11.msky130_fd_pr__nfet_01v8[id])	current
	129	i(@m.x123.x11.msky130_fd_pr__nfet_01v8[ig])	current dims=0
	130	i(@m.x123.x11.msky130_fd_pr__nfet_01v8[is])	current dims=0
	131	i(@m.x123.x12.msky130_fd_pr__nfet_01v8[ib])	current dims=0
	132	i(@m.x123.x12.msky130_fd_pr__nfet_01v8[id])	current
	133	i(@m.x123.x12.msky130_fd_pr__nfet_01v8[ig])	current dims=0
	134	i(@m.x123.x12.msky130_fd_pr__nfet_01v8[is])	current dims=0
	135	i(@m.x123.x13.msky130_fd_pr__nfet_01v8[ib])	current dims=0
	136	i(@m.x123.x13.msky130_fd_pr__nfet_01v8[id])	current
	137	i(@m.x123.x13.msky130_fd_pr__nfet_01v8[ig])	current dims=0
	138	i(@m.x123.x13.msky130_fd_pr__nfet_01v8[is])	current dims=0
	139	i(@m.x123.x14.msky130_fd_pr__nfet_01v8[ib])	current dims=0
	140	i(@m.x123.x14.msky130_fd_pr__nfet_01v8[id])	current
	141	i(@m.x123.x14.msky130_fd_pr__nfet_01v8[ig])	current dims=0
	142	i(@m.x123.x14.msky130_fd_pr__nfet_01v8[is])	current dims=0
	143	i(@m.x123.x15.msky130_fd_pr__nfet_01v8[ib])	current dims=0
	144	i(@m.x123.x15.msky130_fd_pr__nfet_01v8[id])	current
	145	i(@m.x123.x15.msky130_fd_pr__nfet_01v8[ig])	current dims=0
	146	i(@m.x123.x15.msky130_fd_pr__nfet_01v8[is])	current dims=0
	147	i(@m.x123.x16.msky130_fd_pr__nfet_01v8[ib])	current dims=0
	148	i(@m.x123.x16.msky130_fd_pr__nfet_01v8[id])	current
	149	i(@m.x123.x16.msky130_fd_pr__nfet_01v8[ig])	current dims=0
	150	i(@m.x123.x16.msky130_fd_pr__nfet_01v8[is])	current dims=0
	151	i(@m.x123.x17.msky130_fd_pr__nfet_01v8[ib])	current dims=0
	152	i(@m.x123.x17.msky130_fd_pr__nfet_01v8[id])	current
	153	i(@m.x123.x17.msky130_fd_pr__nfet_01v8[ig])	current dims=0
	154	i(@m.x123.x17.msky130_fd_pr__nfet_01v8[is])	current dims=0
	155	i(@m.x123.x18.msky130_fd_pr__nfet_01v8[ib])	current dims=0
	156	i(@m.x123.x18.msky130_fd_pr__nfet_01v8[id])	current
	157	i(@m.x123.x18.msky130_fd_pr__nfet_01v8[ig])	current dims=0
	158	i(@m.x123.x18.msky130_fd_pr__nfet_01v8[is])	current dims=0
	159	i(@m.x123.x19.msky130_fd_pr__nfet_01v8[ib])	current dims=0
	160	i(@m.x123.x19.msky130_fd_pr__nfet_01v8[id])	current
	161	i(@m.x123.x19.msky130_fd_pr__nfet_01v8[ig])	current dims=0
	162	i(@m.x123.x19.msky130_fd_pr__nfet_01v8[is])	current dims=0
	163	i(@m.x123.x20.msky130_fd_pr__nfet_01v8[ib])	current dims=0
	164	i(@m.x123.x20.msky130_fd_pr__nfet_01v8[id])	current
	165	i(@m.x123.x20.msky130_fd_pr__nfet_01v8[ig])	current dims=0
	166	i(@m.x123.x20.msky130_fd_pr__nfet_01v8[is])	current dims=0
	167	i(@m.x123.x21.msky130_fd_pr__nfet_01v8[ib])	current dims=0
	168	i(@m.x123.x21.msky130_fd_pr__nfet_01v8[id])	current
	169	i(@m.x123.x21.msky130_fd_pr__nfet_01v8[ig])	current dims=0
	170	i(@m.x123.x21.msky130_fd_pr__nfet_01v8[is])	current dims=0
	171	i(@m.x123.x22.msky130_fd_pr__nfet_01v8[ib])	current dims=0
	172	i(@m.x123.x22.msky130_fd_pr__nfet_01v8[id])	current
	173	i(@m.x123.x22.msky130_fd_pr__nfet_01v8[ig])	current dims=0
	174	i(@m.x123.x22.msky130_fd_pr__nfet_01v8[is])	current dims=0
	175	i(@m.x123.x23.msky130_fd_pr__nfet_01v8[ib])	current dims=0
	176	i(@m.x123.x23.msky130_fd_pr__nfet_01v8[id])	current
	177	i(@m.x123.x23.msky130_fd_pr__nfet_01v8[ig])	current dims=0
	178	i(@m.x123.x23.msky130_fd_pr__nfet_01v8[is])	current dims=0
	179	i(@m.x123.x24.msky130_fd_pr__nfet_01v8[ib])	current dims=0
	180	i(@m.x123.x24.msky130_fd_pr__nfet_01v8[id])	current
	181	i(@m.x123.x24.msky130_fd_pr__nfet_01v8[ig])	current dims=0
	182	i(@m.x123.x24.msky130_fd_pr__nfet_01v8[is])	current dims=0
	183	i(@m.x123.x25.msky130_fd_pr__nfet_01v8[ib])	current dims=0
	184	i(@m.x123.x25.msky130_fd_pr__nfet_01v8[id])	current
	185	i(@m.x123.x25.msky130_fd_pr__nfet_01v8[ig])	current dims=0
	186	i(@m.x123.x25.msky130_fd_pr__nfet_01v8[is])	current dims=0
	187	i(@m.x123.x26.msky130_fd_pr__nfet_01v8[ib])	current dims=0
	188	i(@m.x123.x26.msky130_fd_pr__nfet_01v8[id])	current
	189	i(@m.x123.x26.msky130_fd_pr__nfet_01v8[ig])	current dims=0
	190	i(@m.x123.x26.msky130_fd_pr__nfet_01v8[is])	current dims=0
	191	i(@m.x123.x27.msky130_fd_pr__nfet_01v8[ib])	current dims=0
	192	i(@m.x123.x27.msky130_fd_pr__nfet_01v8[id])	current
	193	i(@m.x123.x27.msky130_fd_pr__nfet_01v8[ig])	current dims=0
	194	i(@m.x123.x27.msky130_fd_pr__nfet_01v8[is])	current dims=0
	195	i(@m.x123.x28.msky130_fd_pr__pfet_01v8[ib])	current dims=0
	196	i(@m.x123.x28.msky130_fd_pr__pfet_01v8[id])	current
	197	i(@m.x123.x28.msky130_fd_pr__pfet_01v8[ig])	current dims=0
	198	i(@m.x123.x28.msky130_fd_pr__pfet_01v8[is])	current dims=0
	199	i(@m.x123.x29.msky130_fd_pr__pfet_01v8[ib])	current dims=0
	200	i(@m.x123.x29.msky130_fd_pr__pfet_01v8[id])	current
	201	i(@m.x123.x29.msky130_fd_pr__pfet_01v8[ig])	current dims=0
	202	i(@m.x123.x29.msky130_fd_pr__pfet_01v8[is])	current dims=0
	203	i(@m.x123.x30.msky130_fd_pr__pfet_01v8[ib])	current dims=0
	204	i(@m.x123.x30.msky130_fd_pr__pfet_01v8[id])	current
	205	i(@m.x123.x30.msky130_fd_pr__pfet_01v8[ig])	current dims=0
	206	i(@m.x123.x30.msky130_fd_pr__pfet_01v8[is])	current dims=0
	207	i(@m.x123.x31.msky130_fd_pr__pfet_01v8[ib])	current dims=0
	208	i(@m.x123.x31.msky130_fd_pr__pfet_01v8[id])	current
	209	i(@m.x123.x31.msky130_fd_pr__pfet_01v8[ig])	current dims=0
	210	i(@m.x123.x31.msky130_fd_pr__pfet_01v8[is])	current dims=0
	211	i(@m.x123.x32.msky130_fd_pr__pfet_01v8[ib])	current dims=0
	212	i(@m.x123.x32.msky130_fd_pr__pfet_01v8[id])	current
	213	i(@m.x123.x32.msky130_fd_pr__pfet_01v8[ig])	current dims=0
	214	i(@m.x123.x32.msky130_fd_pr__pfet_01v8[is])	current dims=0
	215	i(@m.x123.x33.msky130_fd_pr__pfet_01v8[ib])	current dims=0
	216	i(@m.x123.x33.msky130_fd_pr__pfet_01v8[id])	current
	217	i(@m.x123.x33.msky130_fd_pr__pfet_01v8[ig])	current dims=0
	218	i(@m.x123.x33.msky130_fd_pr__pfet_01v8[is])	current dims=0
	219	i(@m.x123.x34.msky130_fd_pr__pfet_01v8[ib])	current dims=0
	220	i(@m.x123.x34.msky130_fd_pr__pfet_01v8[id])	current
	221	i(@m.x123.x34.msky130_fd_pr__pfet_01v8[ig])	current dims=0
	222	i(@m.x123.x34.msky130_fd_pr__pfet_01v8[is])	current dims=0
	223	i(@m.x123.x35.msky130_fd_pr__pfet_01v8[ib])	current dims=0
	224	i(@m.x123.x35.msky130_fd_pr__pfet_01v8[id])	current
	225	i(@m.x123.x35.msky130_fd_pr__pfet_01v8[ig])	current dims=0
	226	i(@m.x123.x35.msky130_fd_pr__pfet_01v8[is])	current dims=0
	227	i(@m.x123.x36.msky130_fd_pr__pfet_01v8[ib])	current dims=0
	228	i(@m.x123.x36.msky130_fd_pr__pfet_01v8[id])	current
	229	i(@m.x123.x36.msky130_fd_pr__pfet_01v8[ig])	current dims=0
	230	i(@m.x123.x36.msky130_fd_pr__pfet_01v8[is])	current dims=0
	231	i(@m.x123.x37.msky130_fd_pr__pfet_01v8[ib])	current dims=0
	232	i(@m.x123.x37.msky130_fd_pr__pfet_01v8[id])	current
	233	i(@m.x123.x37.msky130_fd_pr__pfet_01v8[ig])	current dims=0
	234	i(@m.x123.x37.msky130_fd_pr__pfet_01v8[is])	current dims=0
	235	i(@m.x123.x38.msky130_fd_pr__pfet_01v8[ib])	current dims=0
	236	i(@m.x123.x38.msky130_fd_pr__pfet_01v8[id])	current
	237	i(@m.x123.x38.msky130_fd_pr__pfet_01v8[ig])	current dims=0
	238	i(@m.x123.x38.msky130_fd_pr__pfet_01v8[is])	current dims=0
	239	i(@m.x123.x39.msky130_fd_pr__pfet_01v8[ib])	current dims=0
	240	i(@m.x123.x39.msky130_fd_pr__pfet_01v8[id])	current
	241	i(@m.x123.x39.msky130_fd_pr__pfet_01v8[ig])	current dims=0
	242	i(@m.x123.x39.msky130_fd_pr__pfet_01v8[is])	current dims=0
	243	i(@m.x123.x40.msky130_fd_pr__pfet_01v8[ib])	current dims=0
	244	i(@m.x123.x40.msky130_fd_pr__pfet_01v8[id])	current
	245	i(@m.x123.x40.msky130_fd_pr__pfet_01v8[ig])	current dims=0
	246	i(@m.x123.x40.msky130_fd_pr__pfet_01v8[is])	current dims=0
	247	i(@m.x123.x41.msky130_fd_pr__pfet_01v8[ib])	current dims=0
	248	i(@m.x123.x41.msky130_fd_pr__pfet_01v8[id])	current
	249	i(@m.x123.x41.msky130_fd_pr__pfet_01v8[ig])	current dims=0
	250	i(@m.x123.x41.msky130_fd_pr__pfet_01v8[is])	current dims=0
	251	i(@m.x123.x42.msky130_fd_pr__pfet_01v8[ib])	current dims=0
	252	i(@m.x123.x42.msky130_fd_pr__pfet_01v8[id])	current
	253	i(@m.x123.x42.msky130_fd_pr__pfet_01v8[ig])	current dims=0
	254	i(@m.x123.x42.msky130_fd_pr__pfet_01v8[is])	current dims=0
	255	i(@m.x123.x43.msky130_fd_pr__pfet_01v8[ib])	current dims=0
	256	i(@m.x123.x43.msky130_fd_pr__pfet_01v8[id])	current
	257	i(@m.x123.x43.msky130_fd_pr__pfet_01v8[ig])	current dims=0
	258	i(@m.x123.x43.msky130_fd_pr__pfet_01v8[is])	current dims=0
	259	i(@m.x123.x44.msky130_fd_pr__pfet_01v8[ib])	current dims=0
	260	i(@m.x123.x44.msky130_fd_pr__pfet_01v8[id])	current
	261	i(@m.x123.x44.msky130_fd_pr__pfet_01v8[ig])	current dims=0
	262	i(@m.x123.x44.msky130_fd_pr__pfet_01v8[is])	current dims=0
	263	i(@m.x123.x45.msky130_fd_pr__pfet_01v8[ib])	current dims=0
	264	i(@m.x123.x45.msky130_fd_pr__pfet_01v8[id])	current
	265	i(@m.x123.x45.msky130_fd_pr__pfet_01v8[ig])	current dims=0
	266	i(@m.x123.x45.msky130_fd_pr__pfet_01v8[is])	current dims=0
	267	i(@m.x123.x46.msky130_fd_pr__pfet_01v8[ib])	current dims=0
	268	i(@m.x123.x46.msky130_fd_pr__pfet_01v8[id])	current
	269	i(@m.x123.x46.msky130_fd_pr__pfet_01v8[ig])	current dims=0
	270	i(@m.x123.x46.msky130_fd_pr__pfet_01v8[is])	current dims=0
	271	i(@m.x123.x47.msky130_fd_pr__pfet_01v8[ib])	current dims=0
	272	i(@m.x123.x47.msky130_fd_pr__pfet_01v8[id])	current
	273	i(@m.x123.x47.msky130_fd_pr__pfet_01v8[ig])	current dims=0
	274	i(@m.x123.x47.msky130_fd_pr__pfet_01v8[is])	current dims=0
	275	i(@m.x123.x48.msky130_fd_pr__nfet_01v8[ib])	current dims=0
	276	i(@m.x123.x48.msky130_fd_pr__nfet_01v8[id])	current
	277	i(@m.x123.x48.msky130_fd_pr__nfet_01v8[ig])	current dims=0
	278	i(@m.x123.x48.msky130_fd_pr__nfet_01v8[is])	current dims=0
	279	i(@m.x123.x49.msky130_fd_pr__nfet_01v8[ib])	current dims=0
	280	i(@m.x123.x49.msky130_fd_pr__nfet_01v8[id])	current
	281	i(@m.x123.x49.msky130_fd_pr__nfet_01v8[ig])	current dims=0
	282	i(@m.x123.x49.msky130_fd_pr__nfet_01v8[is])	current dims=0
	283	i(@m.x123.x50.msky130_fd_pr__nfet_01v8[ib])	current dims=0
	284	i(@m.x123.x50.msky130_fd_pr__nfet_01v8[id])	current
	285	i(@m.x123.x50.msky130_fd_pr__nfet_01v8[ig])	current dims=0
	286	i(@m.x123.x50.msky130_fd_pr__nfet_01v8[is])	current dims=0
	287	i(@m.x123.x51.msky130_fd_pr__nfet_01v8[ib])	current dims=0
	288	i(@m.x123.x51.msky130_fd_pr__nfet_01v8[id])	current
	289	i(@m.x123.x51.msky130_fd_pr__nfet_01v8[ig])	current dims=0
	290	i(@m.x123.x51.msky130_fd_pr__nfet_01v8[is])	current dims=0
	291	i(@m.x123.x52.msky130_fd_pr__nfet_01v8[ib])	current dims=0
	292	i(@m.x123.x52.msky130_fd_pr__nfet_01v8[id])	current
	293	i(@m.x123.x52.msky130_fd_pr__nfet_01v8[ig])	current dims=0
	294	i(@m.x123.x52.msky130_fd_pr__nfet_01v8[is])	current dims=0
	295	i(@m.x123.x53.msky130_fd_pr__nfet_01v8[ib])	current dims=0
	296	i(@m.x123.x53.msky130_fd_pr__nfet_01v8[id])	current
	297	i(@m.x123.x53.msky130_fd_pr__nfet_01v8[ig])	current dims=0
	298	i(@m.x123.x53.msky130_fd_pr__nfet_01v8[is])	current dims=0
	299	i(@m.x123.x54.msky130_fd_pr__nfet_01v8[ib])	current dims=0
	300	i(@m.x123.x54.msky130_fd_pr__nfet_01v8[id])	current
	301	i(@m.x123.x54.msky130_fd_pr__nfet_01v8[ig])	current dims=0
	302	i(@m.x123.x54.msky130_fd_pr__nfet_01v8[is])	current dims=0
	303	i(@m.x123.x55.msky130_fd_pr__nfet_01v8[ib])	current dims=0
	304	i(@m.x123.x55.msky130_fd_pr__nfet_01v8[id])	current
	305	i(@m.x123.x55.msky130_fd_pr__nfet_01v8[ig])	current dims=0
	306	i(@m.x123.x55.msky130_fd_pr__nfet_01v8[is])	current dims=0
	307	i(@m.x123.x56.msky130_fd_pr__nfet_01v8[ib])	current dims=0
	308	i(@m.x123.x56.msky130_fd_pr__nfet_01v8[id])	current
	309	i(@m.x123.x56.msky130_fd_pr__nfet_01v8[ig])	current dims=0
	310	i(@m.x123.x56.msky130_fd_pr__nfet_01v8[is])	current dims=0
	311	i(@m.x123.x57.msky130_fd_pr__nfet_01v8[ib])	current dims=0
	312	i(@m.x123.x57.msky130_fd_pr__nfet_01v8[id])	current
	313	i(@m.x123.x57.msky130_fd_pr__nfet_01v8[ig])	current dims=0
	314	i(@m.x123.x57.msky130_fd_pr__nfet_01v8[is])	current dims=0
	315	i(@m.x123.x58.msky130_fd_pr__nfet_01v8[ib])	current dims=0
	316	i(@m.x123.x58.msky130_fd_pr__nfet_01v8[id])	current
	317	i(@m.x123.x58.msky130_fd_pr__nfet_01v8[ig])	current dims=0
	318	i(@m.x123.x58.msky130_fd_pr__nfet_01v8[is])	current dims=0
	319	i(@m.x123.x59.msky130_fd_pr__nfet_01v8[ib])	current dims=0
	320	i(@m.x123.x59.msky130_fd_pr__nfet_01v8[id])	current
	321	i(@m.x123.x59.msky130_fd_pr__nfet_01v8[ig])	current dims=0
	322	i(@m.x123.x59.msky130_fd_pr__nfet_01v8[is])	current dims=0
	323	i(@m.x123.x60.msky130_fd_pr__nfet_01v8[ib])	current dims=0
	324	i(@m.x123.x60.msky130_fd_pr__nfet_01v8[id])	current
	325	i(@m.x123.x60.msky130_fd_pr__nfet_01v8[ig])	current dims=0
	326	i(@m.x123.x60.msky130_fd_pr__nfet_01v8[is])	current dims=0
	327	i(@m.x123.x61.msky130_fd_pr__nfet_01v8[ib])	current dims=0
	328	i(@m.x123.x61.msky130_fd_pr__nfet_01v8[id])	current
	329	i(@m.x123.x61.msky130_fd_pr__nfet_01v8[ig])	current dims=0
	330	i(@m.x123.x61.msky130_fd_pr__nfet_01v8[is])	current dims=0
	331	i(@m.x123.x62.msky130_fd_pr__nfet_01v8[ib])	current dims=0
	332	i(@m.x123.x62.msky130_fd_pr__nfet_01v8[id])	current
	333	i(@m.x123.x62.msky130_fd_pr__nfet_01v8[ig])	current dims=0
	334	i(@m.x123.x62.msky130_fd_pr__nfet_01v8[is])	current dims=0
	335	i(@m.x123.x63.msky130_fd_pr__nfet_01v8[ib])	current dims=0
	336	i(@m.x123.x63.msky130_fd_pr__nfet_01v8[id])	current
	337	i(@m.x123.x63.msky130_fd_pr__nfet_01v8[ig])	current dims=0
	338	i(@m.x123.x63.msky130_fd_pr__nfet_01v8[is])	current dims=0
	339	i(@m.x123.x64.msky130_fd_pr__nfet_01v8[ib])	current dims=0
	340	i(@m.x123.x64.msky130_fd_pr__nfet_01v8[id])	current
	341	i(@m.x123.x64.msky130_fd_pr__nfet_01v8[ig])	current dims=0
	342	i(@m.x123.x64.msky130_fd_pr__nfet_01v8[is])	current dims=0
	343	i(@m.x123.x65.msky130_fd_pr__nfet_01v8[ib])	current dims=0
	344	i(@m.x123.x65.msky130_fd_pr__nfet_01v8[id])	current
	345	i(@m.x123.x65.msky130_fd_pr__nfet_01v8[ig])	current dims=0
	346	i(@m.x123.x65.msky130_fd_pr__nfet_01v8[is])	current dims=0
	347	i(@m.x123.x66.msky130_fd_pr__nfet_01v8[ib])	current dims=0
	348	i(@m.x123.x66.msky130_fd_pr__nfet_01v8[id])	current
	349	i(@m.x123.x66.msky130_fd_pr__nfet_01v8[ig])	current dims=0
	350	i(@m.x123.x66.msky130_fd_pr__nfet_01v8[is])	current dims=0
	351	i(@m.x123.x67.msky130_fd_pr__nfet_01v8[ib])	current dims=0
	352	i(@m.x123.x67.msky130_fd_pr__nfet_01v8[id])	current
	353	i(@m.x123.x67.msky130_fd_pr__nfet_01v8[ig])	current dims=0
	354	i(@m.x123.x67.msky130_fd_pr__nfet_01v8[is])	current dims=0
	355	i(@m.x123.x68.msky130_fd_pr__nfet_01v8[ib])	current dims=0
	356	i(@m.x123.x68.msky130_fd_pr__nfet_01v8[id])	current
	357	i(@m.x123.x68.msky130_fd_pr__nfet_01v8[ig])	current dims=0
	358	i(@m.x123.x68.msky130_fd_pr__nfet_01v8[is])	current dims=0
	359	i(@m.x123.x69.msky130_fd_pr__nfet_01v8[ib])	current dims=0
	360	i(@m.x123.x69.msky130_fd_pr__nfet_01v8[id])	current
	361	i(@m.x123.x69.msky130_fd_pr__nfet_01v8[ig])	current dims=0
	362	i(@m.x123.x69.msky130_fd_pr__nfet_01v8[is])	current dims=0
	363	i(@m.x123.x70.msky130_fd_pr__nfet_01v8[ib])	current dims=0
	364	i(@m.x123.x70.msky130_fd_pr__nfet_01v8[id])	current
	365	i(@m.x123.x70.msky130_fd_pr__nfet_01v8[ig])	current dims=0
	366	i(@m.x123.x70.msky130_fd_pr__nfet_01v8[is])	current dims=0
	367	i(@m.x123.x71.msky130_fd_pr__nfet_01v8[ib])	current dims=0
	368	i(@m.x123.x71.msky130_fd_pr__nfet_01v8[id])	current
	369	i(@m.x123.x71.msky130_fd_pr__nfet_01v8[ig])	current dims=0
	370	i(@m.x123.x71.msky130_fd_pr__nfet_01v8[is])	current dims=0
	371	i(@m.x123.x72.msky130_fd_pr__nfet_01v8[ib])	current dims=0
	372	i(@m.x123.x72.msky130_fd_pr__nfet_01v8[id])	current
	373	i(@m.x123.x72.msky130_fd_pr__nfet_01v8[ig])	current dims=0
	374	i(@m.x123.x72.msky130_fd_pr__nfet_01v8[is])	current dims=0
	375	i(@m.x123.x73.msky130_fd_pr__nfet_01v8[ib])	current dims=0
	376	i(@m.x123.x73.msky130_fd_pr__nfet_01v8[id])	current
	377	i(@m.x123.x73.msky130_fd_pr__nfet_01v8[ig])	current dims=0
	378	i(@m.x123.x73.msky130_fd_pr__nfet_01v8[is])	current dims=0
	379	i(@m.x123.x74.msky130_fd_pr__nfet_01v8[ib])	current dims=0
	380	i(@m.x123.x74.msky130_fd_pr__nfet_01v8[id])	current
	381	i(@m.x123.x74.msky130_fd_pr__nfet_01v8[ig])	current dims=0
	382	i(@m.x123.x74.msky130_fd_pr__nfet_01v8[is])	current dims=0
	383	i(@m.x123.x75.msky130_fd_pr__nfet_01v8[ib])	current dims=0
	384	i(@m.x123.x75.msky130_fd_pr__nfet_01v8[id])	current
	385	i(@m.x123.x75.msky130_fd_pr__nfet_01v8[ig])	current dims=0
	386	i(@m.x123.x75.msky130_fd_pr__nfet_01v8[is])	current dims=0
	387	i(@m.x123.x76.msky130_fd_pr__nfet_01v8[ib])	current dims=0
	388	i(@m.x123.x76.msky130_fd_pr__nfet_01v8[id])	current
	389	i(@m.x123.x76.msky130_fd_pr__nfet_01v8[ig])	current dims=0
	390	i(@m.x123.x76.msky130_fd_pr__nfet_01v8[is])	current dims=0
	391	i(@m.x123.x77.msky130_fd_pr__nfet_01v8[ib])	current dims=0
	392	i(@m.x123.x77.msky130_fd_pr__nfet_01v8[id])	current
	393	i(@m.x123.x77.msky130_fd_pr__nfet_01v8[ig])	current dims=0
	394	i(@m.x123.x77.msky130_fd_pr__nfet_01v8[is])	current dims=0
	395	i(@m.x123.x78.msky130_fd_pr__pfet_01v8[ib])	current dims=0
	396	i(@m.x123.x78.msky130_fd_pr__pfet_01v8[id])	current
	397	i(@m.x123.x78.msky130_fd_pr__pfet_01v8[ig])	current dims=0
	398	i(@m.x123.x78.msky130_fd_pr__pfet_01v8[is])	current dims=0
	399	i(@m.x123.x79.msky130_fd_pr__pfet_01v8[ib])	current dims=0
	400	i(@m.x123.x79.msky130_fd_pr__pfet_01v8[id])	current
	401	i(@m.x123.x79.msky130_fd_pr__pfet_01v8[ig])	current dims=0
	402	i(@m.x123.x79.msky130_fd_pr__pfet_01v8[is])	current dims=0
	403	i(@m.x123.x80.msky130_fd_pr__pfet_01v8[ib])	current dims=0
	404	i(@m.x123.x80.msky130_fd_pr__pfet_01v8[id])	current
	405	i(@m.x123.x80.msky130_fd_pr__pfet_01v8[ig])	current dims=0
	406	i(@m.x123.x80.msky130_fd_pr__pfet_01v8[is])	current dims=0
	407	i(@m.x123.x81.msky130_fd_pr__pfet_01v8[ib])	current dims=0
	408	i(@m.x123.x81.msky130_fd_pr__pfet_01v8[id])	current
	409	i(@m.x123.x81.msky130_fd_pr__pfet_01v8[ig])	current dims=0
	410	i(@m.x123.x81.msky130_fd_pr__pfet_01v8[is])	current dims=0
	411	i(@m.x123.x82.msky130_fd_pr__pfet_01v8[ib])	current dims=0
	412	i(@m.x123.x82.msky130_fd_pr__pfet_01v8[id])	current
	413	i(@m.x123.x82.msky130_fd_pr__pfet_01v8[ig])	current dims=0
	414	i(@m.x123.x82.msky130_fd_pr__pfet_01v8[is])	current dims=0
	415	i(@m.x123.x83.msky130_fd_pr__pfet_01v8[ib])	current dims=0
	416	i(@m.x123.x83.msky130_fd_pr__pfet_01v8[id])	current
	417	i(@m.x123.x83.msky130_fd_pr__pfet_01v8[ig])	current dims=0
	418	i(@m.x123.x83.msky130_fd_pr__pfet_01v8[is])	current dims=0
	419	i(@m.x123.x84.msky130_fd_pr__pfet_01v8[ib])	current dims=0
	420	i(@m.x123.x84.msky130_fd_pr__pfet_01v8[id])	current
	421	i(@m.x123.x84.msky130_fd_pr__pfet_01v8[ig])	current dims=0
	422	i(@m.x123.x84.msky130_fd_pr__pfet_01v8[is])	current dims=0
	423	i(@m.x123.x85.msky130_fd_pr__pfet_01v8[ib])	current dims=0
	424	i(@m.x123.x85.msky130_fd_pr__pfet_01v8[id])	current
	425	i(@m.x123.x85.msky130_fd_pr__pfet_01v8[ig])	current dims=0
	426	i(@m.x123.x85.msky130_fd_pr__pfet_01v8[is])	current dims=0
	427	i(@m.x123.x86.msky130_fd_pr__pfet_01v8[ib])	current dims=0
	428	i(@m.x123.x86.msky130_fd_pr__pfet_01v8[id])	current
	429	i(@m.x123.x86.msky130_fd_pr__pfet_01v8[ig])	current dims=0
	430	i(@m.x123.x86.msky130_fd_pr__pfet_01v8[is])	current dims=0
	431	i(@m.x123.x87.msky130_fd_pr__pfet_01v8[ib])	current dims=0
	432	i(@m.x123.x87.msky130_fd_pr__pfet_01v8[id])	current
	433	i(@m.x123.x87.msky130_fd_pr__pfet_01v8[ig])	current dims=0
	434	i(@m.x123.x87.msky130_fd_pr__pfet_01v8[is])	current dims=0
	435	i(@m.x123.x88.msky130_fd_pr__pfet_01v8[ib])	current dims=0
	436	i(@m.x123.x88.msky130_fd_pr__pfet_01v8[id])	current
	437	i(@m.x123.x88.msky130_fd_pr__pfet_01v8[ig])	current dims=0
	438	i(@m.x123.x88.msky130_fd_pr__pfet_01v8[is])	current dims=0
	439	i(@m.x123.x89.msky130_fd_pr__pfet_01v8[ib])	current dims=0
	440	i(@m.x123.x89.msky130_fd_pr__pfet_01v8[id])	current
	441	i(@m.x123.x89.msky130_fd_pr__pfet_01v8[ig])	current dims=0
	442	i(@m.x123.x89.msky130_fd_pr__pfet_01v8[is])	current dims=0
	443	i(@m.x123.x90.msky130_fd_pr__pfet_01v8[ib])	current dims=0
	444	i(@m.x123.x90.msky130_fd_pr__pfet_01v8[id])	current
	445	i(@m.x123.x90.msky130_fd_pr__pfet_01v8[ig])	current dims=0
	446	i(@m.x123.x90.msky130_fd_pr__pfet_01v8[is])	current dims=0
	447	i(@m.x123.x91.msky130_fd_pr__pfet_01v8[ib])	current dims=0
	448	i(@m.x123.x91.msky130_fd_pr__pfet_01v8[id])	current
	449	i(@m.x123.x91.msky130_fd_pr__pfet_01v8[ig])	current dims=0
	450	i(@m.x123.x91.msky130_fd_pr__pfet_01v8[is])	current dims=0
	451	i(@m.x123.x92.msky130_fd_pr__pfet_01v8[ib])	current dims=0
	452	i(@m.x123.x92.msky130_fd_pr__pfet_01v8[id])	current
	453	i(@m.x123.x92.msky130_fd_pr__pfet_01v8[ig])	current dims=0
	454	i(@m.x123.x92.msky130_fd_pr__pfet_01v8[is])	current dims=0
	455	i(@m.x123.x93.msky130_fd_pr__pfet_01v8[ib])	current dims=0
	456	i(@m.x123.x93.msky130_fd_pr__pfet_01v8[id])	current
	457	i(@m.x123.x93.msky130_fd_pr__pfet_01v8[ig])	current dims=0
	458	i(@m.x123.x93.msky130_fd_pr__pfet_01v8[is])	current dims=0
	459	i(@m.x123.x94.msky130_fd_pr__pfet_01v8[ib])	current dims=0
	460	i(@m.x123.x94.msky130_fd_pr__pfet_01v8[id])	current
	461	i(@m.x123.x94.msky130_fd_pr__pfet_01v8[ig])	current dims=0
	462	i(@m.x123.x94.msky130_fd_pr__pfet_01v8[is])	current dims=0
	463	i(@m.x123.x95.msky130_fd_pr__pfet_01v8[ib])	current dims=0
	464	i(@m.x123.x95.msky130_fd_pr__pfet_01v8[id])	current
	465	i(@m.x123.x95.msky130_fd_pr__pfet_01v8[ig])	current dims=0
	466	i(@m.x123.x95.msky130_fd_pr__pfet_01v8[is])	current dims=0
	467	i(@m.x123.x96.msky130_fd_pr__pfet_01v8[ib])	current dims=0
	468	i(@m.x123.x96.msky130_fd_pr__pfet_01v8[id])	current
	469	i(@m.x123.x96.msky130_fd_pr__pfet_01v8[ig])	current dims=0
	470	i(@m.x123.x96.msky130_fd_pr__pfet_01v8[is])	current dims=0
	471	i(@m.x123.x97.msky130_fd_pr__pfet_01v8[ib])	current dims=0
	472	i(@m.x123.x97.msky130_fd_pr__pfet_01v8[id])	current
	473	i(@m.x123.x97.msky130_fd_pr__pfet_01v8[ig])	current dims=0
	474	i(@m.x123.x97.msky130_fd_pr__pfet_01v8[is])	current dims=0
	475	i(@m.x123.x98.msky130_fd_pr__pfet_01v8[ib])	current dims=0
	476	i(@m.x123.x98.msky130_fd_pr__pfet_01v8[id])	current
	477	i(@m.x123.x98.msky130_fd_pr__pfet_01v8[ig])	current dims=0
	478	i(@m.x123.x98.msky130_fd_pr__pfet_01v8[is])	current dims=0
	479	i(@m.x123.x99.msky130_fd_pr__pfet_01v8[ib])	current dims=0
	480	i(@m.x123.x99.msky130_fd_pr__pfet_01v8[id])	current
	481	i(@m.x123.x99.msky130_fd_pr__pfet_01v8[ig])	current dims=0
	482	i(@m.x123.x99.msky130_fd_pr__pfet_01v8[is])	current dims=0
	483	i(@m.x123.x100.msky130_fd_pr__pfet_01v8[ib])	current dims=0
	484	i(@m.x123.x100.msky130_fd_pr__pfet_01v8[id])	current
	485	i(@m.x123.x100.msky130_fd_pr__pfet_01v8[ig])	current dims=0
	486	i(@m.x123.x100.msky130_fd_pr__pfet_01v8[is])	current dims=0
	487	i(@m.x123.x101.msky130_fd_pr__pfet_01v8[ib])	current dims=0
	488	i(@m.x123.x101.msky130_fd_pr__pfet_01v8[id])	current
	489	i(@m.x123.x101.msky130_fd_pr__pfet_01v8[ig])	current dims=0
	490	i(@m.x123.x101.msky130_fd_pr__pfet_01v8[is])	current dims=0
	491	i(@m.x123.x102.msky130_fd_pr__pfet_01v8[ib])	current dims=0
	492	i(@m.x123.x102.msky130_fd_pr__pfet_01v8[id])	current
	493	i(@m.x123.x102.msky130_fd_pr__pfet_01v8[ig])	current dims=0
	494	i(@m.x123.x102.msky130_fd_pr__pfet_01v8[is])	current dims=0
	495	i(@m.x123.x103.msky130_fd_pr__pfet_01v8[ib])	current dims=0
	496	i(@m.x123.x103.msky130_fd_pr__pfet_01v8[id])	current
	497	i(@m.x123.x103.msky130_fd_pr__pfet_01v8[ig])	current dims=0
	498	i(@m.x123.x103.msky130_fd_pr__pfet_01v8[is])	current dims=0
	499	i(@m.x123.x104.msky130_fd_pr__pfet_01v8[ib])	current dims=0
	500	i(@m.x123.x104.msky130_fd_pr__pfet_01v8[id])	current
	501	i(@m.x123.x104.msky130_fd_pr__pfet_01v8[ig])	current dims=0
	502	i(@m.x123.x104.msky130_fd_pr__pfet_01v8[is])	current dims=0